4
Lattice="3.52 0.0 0.0 0.0 3.52 0.0 0.0 0.0 3.52" Properties=species:S:1:pos:R:3:initial_magmoms:R:1:energies:R:1:forces:R:3 energy=-19.300367419312835 free_energy=-19.300367419312835 stress="0.0803628306663782 2.666763008176648e-08 -3.652971248613149e-09 2.666763008176648e-08 0.08036282623592725 -2.3232625296835404e-08 -3.652971248613149e-09 -2.3232625296835404e-08 0.0803628029250373" pbc="T T T"
Ni       0.00000000       0.00000000       0.00000000       0.60000000      -4.82508861       0.00000041       0.00000011      -0.00000017
Ni       0.00000000       1.76000000       1.76000000       0.60000000      -4.82509418      -0.00000067      -0.00000001       0.00000080
Ni       1.76000000       0.00000000       1.76000000       0.60000000      -4.82509510      -0.00000020       0.00000022      -0.00000022
Ni       1.76000000       1.76000000       0.00000000       0.60000000      -4.82508953       0.00000046      -0.00000032      -0.00000040
