120
Lattice="12.16330994 0.0 0.0 -6.08165497 10.53373541 0.0 0.0 0.0 11.33498418" Properties=species:S:1:pos:R:3:forces:R:3 energy=-1061.62068657 stress="0.000845382195955209 -0.0003517115795377359 0.0002333988120568636 -0.0003517115795377359 0.0002682303464055141 -0.00022226914022886236 0.0002333988120568636 -0.00022226914022886236 -0.002131560744092466" free_energy=-1061.62068657 pbc="T T T"
Y       -0.02527244       3.47779407       8.34159429       0.12068906       0.40584270       0.09129169
Y        3.03994187       1.75020732       2.68954861      -0.07479651      -0.25400313       0.09443167
Y       -0.03297552       3.49318522       2.69393287       0.10161725      -0.04693586      -0.23454129
Y        3.02701234       1.72327013       8.37236356      -0.16560941       0.19639414      -0.18960713
Y        0.00689556       0.00153445       3.18957171      -0.07314762      -0.33664116      -0.03346335
Y        6.07266914      10.52227313       8.86551460      -0.07181607      -0.24975793       0.04557243
Y       -3.03578798       8.74987997       8.35446675      -0.15457197       0.24214365       0.12197872
Y        0.00362686       7.01452122       2.65974123      -0.29391651      -0.17691697       0.06560465
Y       -3.05595001       8.75331397       2.68913058       0.23210209       0.00005795       0.03838756
Y        0.00811804       7.02601900       8.33094462      -0.48742400      -0.35884559       0.25833693
Y        9.12832358       5.24636537       3.18255570      -0.29888676       0.04488266       0.11124158
Y        9.10293821       5.26331236       8.85096128      -0.07820542      -0.27665488      -0.14463402
Y        6.03733418       3.47941753       8.35946820       0.26307052       0.19942859      -0.05682472
Y        9.11324479       1.72373920       2.69072450      -0.11800553       0.07411452       0.07059775
Y        6.07836510       3.49551697       2.69273884       0.04704450      -0.23561322      -0.15453759
Y        9.09941407       1.72188979       8.39784630       0.04775707       0.09626404      -0.22076655
Y       -0.00029922      10.49463482       3.20807608      -0.23204663       0.14227187       0.08628165
Y       -0.02157601      10.52965780       8.88851011       0.04736222      -0.26933114      -0.23711959
Y        3.01338621       8.75119311       8.35862091       0.27348796       0.26432983       0.09010398
Y        6.07677675       7.01606842       2.72535583      -0.14581634      -0.11893112      -0.17439848
Y        3.01755725       8.75422577       2.68490070       0.38395858       0.31854738       0.09685840
Y        6.07757126       7.03791749       8.35145153      -0.16329906      -0.59619926       0.17801674
Y        2.99827439       5.25092026       3.15732573       0.42969922      -0.21074613       0.14137249
Y        3.03901387       5.27182962       8.83872346      -0.26604469      -0.15311744       0.15649402
Mn      11.14141012       1.70977663       0.06850660       0.03783261       0.08290639       0.05485555
Mn       1.98601333       3.52941590       0.04555077       0.03352933      -0.43753332       0.26838218
Mn      -2.02837491      10.51373659       5.74151305      -0.11357300       0.04060228      -0.02909896
Mn      10.12909269       3.47645776       5.74403236      -0.14791467       0.06719309       0.31842488
Mn       8.08493509       6.99508395       0.07489557       0.02241250      -0.00894698       0.12854787
Mn      -1.04052872       8.75767009       0.07545495       0.16687120      -0.24036597      -0.32558693
Mn       0.99117250       5.28321554       5.70567693       0.00086890      -0.25204934       0.47013695
Mn       7.08575281       8.74617431       5.74719290       0.14333576       0.28702580      -0.38451986
Mn       5.05320460       1.73196805       0.09082496      -0.04321187       0.04566191       0.08007137
Mn       8.11889274       3.45847688       0.04608056      -0.22826721       0.28604695       0.51453719
Mn       4.02964060      10.51649379       5.74541115       0.18032228       0.02870384      -0.00505978
Mn       4.02429586       3.49397272       5.73215795       0.06744205      -0.09921733      -0.30646409
Mn       2.00965862       6.98655531       0.07052911       0.02763969       0.44541494      -0.23821804
Mn       5.05976069       8.75940837       0.08348545      -0.07639118       0.01920229       0.19845650
Mn       7.05677403       5.22228788       5.72561959       0.14581875      -0.07478059       0.33350277
Mn       1.01433965       8.73898177       5.76057045      -0.06623599       0.31614813      -0.00290255
Mn       7.06510754       1.72476824       5.76176901       0.25888592      -0.08716869      -0.10574003
Mn      -4.02449400      10.52758824       0.07843197      -0.26829381      -0.17759142       0.02688531
Mn       4.06896489       6.98578045       5.71543035      -0.26794886       0.14474564       0.51397266
Mn      -1.01944319       5.25076973       0.05706258      -0.12672657       0.10048145      -0.48185415
Mn       1.00420506       1.74870120       5.73315157      -0.07248066      -0.17022169       0.15029850
Mn       2.01099105      10.50934012       0.06860306       0.03696668      -0.05451287       0.20447356
Mn      -2.02408303       7.01288786       5.74002239      -0.49250105      -0.03068878       0.05699489
Mn       5.05536475       5.25680904       0.08185241       0.10005877      -0.06593275      -0.17664482
O        0.02179300       3.51222358       5.99985763      -0.40917332      -0.04301900      -0.25893263
O        3.01710848       1.73570879       0.30089203       0.05876291       0.19966388       0.03109979
O       -0.04123271       3.48292326       0.30470353       0.15170242       0.00013385      -0.03256915
O        3.00499985       1.73113662       5.95475890       0.27052534       0.14011851       0.17610667
O        6.08894815      10.52007916       5.44954948      -0.21867361      -0.01730418       0.10583276
O        6.06587910      10.50416585      11.14998488       0.19364614       0.08412558      -0.12308380
O       10.21210898       3.36430824       3.88926408       0.01890119      -0.13074589      -0.12506952
O       -3.90232742      10.50558390       9.55904720       0.07648096       0.07409760      -0.23843602
O        1.93608604       3.35763353       9.51759618      -0.08005173       0.13305641       0.27100467
O        1.07338303       1.89497371       3.87658567       0.05573875       0.07742550      -0.11059418
O       -2.22288692      10.48584684       3.88272946       0.29839707       0.18005357       0.09521405
O       11.06661824       1.86539013       9.54763434       0.02240547       0.03331050       0.01610199
O       10.01864837       3.61270867       7.61154911       0.15886423       0.11770063      -0.10998094
O       -4.18822858      10.50192026       1.93259021      -0.29925944       0.23216533       0.07335920
O        2.08369194       3.62411745       1.92904032      -0.09007346       0.16838896      -0.22445978
O        0.90583508       1.58218992       7.59843906       0.13789499      -0.00194057      -0.00817113
O       -1.85298315      10.53107364       7.61098893      -0.13119340      -0.06986398      -0.03897370
O       11.20186822       1.57654173       1.93417450       0.16049142       0.12760162      -0.01587024
O       -3.06679329       8.80036659       5.99175697       0.12634659      -0.33803312       0.01437240
O        0.00786753       6.98043332       0.28235910      -0.07235756       0.19159374       0.27178913
O       -3.02669566       8.75699888       0.30808544      -0.23685192      -0.11241140      -0.00372633
O       -0.04596059       7.03246491       5.96421353       0.23539868      -0.13458627       0.17268347
O        9.07575187       5.23359458       5.47597223       0.28571249       0.16808423      -0.20163737
O        9.09656098       5.24643984      11.09949728       0.09984153      -0.09921311       0.21438118
O       -4.96977135       8.62666634       3.87806545      -0.17508959      -0.03318373       0.14813016
O       -0.86322111       5.29757102       9.51873240      -0.01735694      -0.41268324       0.21566964
O       -1.11457499       8.58586624       9.54010519       0.01804834       0.30826958       0.23052265
O       -1.93959595       7.15641843       3.88585758      -0.04787283      -0.20309132      -0.08568311
O        0.80826405       5.26474863       3.84822339       0.09866857      -0.06158658       0.08744303
O        8.00409457       7.12786421       9.56748405      -0.04024587       0.25143386      -0.41743881
O        7.00268573       8.88531242       7.60208587      -0.04533700       0.22779260       0.13452707
O       -1.20047484       5.26067376       1.90277557      -0.02756938      -0.04960475       0.34895740
O       -0.92852488       8.88585059       1.93231227      -0.01657268       0.20142956      -0.01971054
O       -2.14928545       6.86989156       7.60876251       0.24372283      -0.06540263      -0.34765484
O        1.15986459       5.24839817       7.57611096       0.16102689       0.22557611      -0.10590691
O        8.16590685       6.85997068       1.93669132       0.12263871      -0.16476267       0.07545955
O        6.04777602       3.45035748       5.97814705      -0.09699202       0.25986653       0.10357038
O        9.12033800       1.72367231       0.26274267      -0.12491091       0.01360536       0.15570543
O        6.04723086       3.48161634       0.33275467       0.12028988       0.05159035      -0.05008309
O        9.10497653       1.72905052       5.99847748       0.03934853       0.02873814      -0.10064319
O       -0.01520256      10.51269975       5.48935873       0.02240424      -0.16017941      -0.22791511
O       -0.01932215      10.49285778      11.12575567       0.01479838       0.17836038       0.16400369
O        4.17287970       3.33010067       3.85749631      -0.49506689       0.28869121       0.40211918
O        2.18258756      10.50056436       9.55912869      -0.10494573      -0.00269560      -0.08709220
O        7.98147963       3.34176910       9.54659424       0.09972723       0.02367611      -0.23088766
O        7.18372000       1.85651304       3.90446248      -0.10938742       0.09352852      -0.18553088
O        3.88625805      10.50348105       3.87650055      -0.02908228       0.05080949       0.16380623
O        4.95884475       1.88954083       9.56626282       0.00616510      -0.05310509      -0.04286147
O        3.92378253       3.66617002       7.58722276       0.11909130      -0.25901442      -0.02222083
O        1.84218170      10.52749691       1.93697798      -0.04223090      -0.10913066      -0.01616547
O        8.20501876       3.62074960       1.91835687       0.00531077       0.04433090      -0.00308651
O        7.00285985       1.57059227       7.62130184      -0.14232691       0.15006336       0.04672476
O        4.21349597      10.52560695       7.61146817      -0.02789520      -0.19925595      -0.09242887
O        5.13326138       1.56199348       1.95514365       0.13900641       0.06730548      -0.23288070
O        3.01212895       8.75320579       6.00107081       0.13248457      -0.00205600      -0.15978663
O        6.06740188       7.01590030       0.31324818      -0.03133451      -0.14794361       0.06517597
O        3.03589830       8.79326316       0.32569263      -0.12997183      -0.33504035      -0.03857619
O        6.07882019       7.01658394       5.92488872      -0.13554981      -0.15983138       0.17145225
O        3.01302733       5.26433676       5.42793343      -0.01125610      -0.12608739       0.02639413
O        2.98994720       5.25078132      11.14677946       0.32325960       0.02456737      -0.26940526
O        1.07454226       8.57572794       3.90262553       0.15098383       0.22660572      -0.12523380
O        5.22750149       5.23905801       9.55009664      -0.17914558       0.12759869       0.08458961
O        4.94735516       8.61303579       9.57115466       0.19212444       0.02204384      -0.32655644
O        4.11371109       7.12355339       3.87790144       0.03142156       0.17660452      -0.23323759
O        6.89239626       5.20929410       3.88038301       0.24747086       0.20028395      -0.21546216
O        1.89591920       7.15801282       9.54308867       0.37897913      -0.15751858       0.11897649
O        0.91593811       8.92452657       7.63106738       0.00755529      -0.04549889      -0.42980713
O        4.87480740       5.26179455       1.93021179       0.09357355      -0.00966068       0.12396946
O        5.14543917       8.90372497       1.94922826      -0.00786668      -0.01799931       0.03265983
O        3.96680574       6.87466218       7.60225623       0.12530796      -0.15041601      -0.27895087
O        7.21784277       5.23446109       7.58754422       0.00731426       0.15943044       0.05952334
O        2.12554717       6.88428106       1.93053563      -0.26248387      -0.26763148      -0.09396818
120
Lattice="12.16330994 0.0 0.0 -6.08165497 10.53373541 0.0 0.0 0.0 11.33498418" Properties=species:S:1:pos:R:3:forces:R:3 energy=-1061.67131932 stress="0.0008390176854089819 0.0009410791796769177 -0.00040321920917646685 0.0009410791796769177 0.0008920062004689565 -0.00020027947345766187 -0.00040321920917646685 -0.00020027947345766187 -0.002349784949502117" free_energy=-1061.67131932 pbc="T T T"
Y       -0.02163190       3.51934133       8.35309239       0.03830225      -0.07157593      -0.17653929
Y        3.00474162       1.73070221       2.66820177       0.17524037       0.02929276       0.09848300
Y       -0.03276966       3.49181110       2.63742605       0.19643352       0.11382654       0.14846435
Y        3.02819455       1.75223337       8.31501851      -0.16420755      -0.07958417      -0.02479880
Y        6.03599950      10.51147952       3.18543501       0.19977164       0.10460535      -0.20368289
Y        6.06440186      10.53303629       8.85705009      -0.03972217       0.01080657      -0.38359826
Y       -3.05028945       8.79073570       8.33275164      -0.18718430      -0.34848636       0.06647841
Y       -0.01385967       7.00897194       2.66704810       0.01636553       0.05733688      -0.05055745
Y       -3.07145883       8.77148150       2.65770796       0.13347884       0.07532325       0.21005582
Y       -0.02232484       7.03499448       8.30028882       0.15884787      -0.09835940       0.16877834
Y       -3.04039514       5.28205008       3.19067211      -0.23072469      -0.13290360      -0.24356137
Y        9.10783272       5.25703657       8.83469637      -0.10340282       0.24249815       0.23815694
Y        6.07005160       3.51007944       8.31124929      -0.13222088      -0.20939995       0.13776505
Y        9.11225250       1.76000790       2.63120586      -0.26550456      -0.11930874       0.30308064
Y        6.06979416       3.53703348       2.72296902       0.12492272      -0.41467764      -0.38909583
Y        9.10719871       1.76429355       8.30254096       0.04720578      -0.03882037      -0.00598603
Y       -0.02586741      10.50245559       3.15184073       0.13363492       0.44705827       0.12911409
Y        6.07307740       0.00423330       8.80203121      -0.00917819       0.01277478       0.28309202
Y        3.04122924       8.76821794       8.33975984      -0.00155972       0.12412014      -0.02252545
Y        6.05105014       7.02789527       2.69621721       0.01582852      -0.01039930      -0.17706310
Y        3.00609266       8.74409664       2.61449447       0.07779202       0.25293990      -0.03681330
Y        6.06047634       7.00404395       8.34846216       0.26184786       0.23264036       0.20476915
Y        3.01321890       5.24043382       3.14210953       0.01574151       0.05038992      -0.02920505
Y        3.02428636       5.25822962       8.81093405       0.11669453      -0.29480184       0.16341705
Mn      11.10249951       1.76140468       0.02147651       0.17634538      -0.15437685       0.47963067
Mn       2.00601200       3.49461160       0.03628952       0.07239509      -0.02345119       0.25415703
Mn      -2.03396681      10.52378545       5.70907403      -0.15981805      -0.01667960       0.02737556
Mn      -2.02787397       3.51359655       5.69782281      -0.00677716      -0.03154183       0.34782034
Mn       8.09052273       7.03871226       0.07362197      -0.15131704      -0.12980866      -0.52588033
Mn      -1.03192403       8.77690511       0.03588384       0.03349564       0.01536684       0.42793858
Mn       1.03098848       5.22839903       5.71013940      -0.39497069       0.26984809      -0.22136067
Mn       7.08186931       8.73985049       5.73428734       0.04369259       0.30048577       0.01140372
Mn       5.03354778       1.74177485       0.05716618       0.10072595       0.16319001      -0.05635399
Mn       8.05517116       3.51134349       0.05823110       0.11067610       0.32213600       0.19269237
Mn       4.03671016      10.50327480       5.69847400      -0.00069617       0.26158195       0.32864878
Mn       4.04609148       3.48800210       5.69197373      -0.03727315      -0.06187921      -0.04645729
Mn       1.99918850       6.97554050       0.01471791      -0.02096667       0.11967995      -0.08873474
Mn       5.03306301       8.76604704       0.04851294       0.08409558       0.12767024      -0.15458173
Mn       7.07260762       5.28322091       5.73817546       0.17797904      -0.11611301      -0.54032042
Mn       1.02688087       8.82002833       5.69593372      -0.04897644      -0.43522437       0.11702132
Mn       7.09104111       1.76086451       5.70724909       0.11174363      -0.07978955      -0.23213740
Mn      -4.08051614      10.52580909       0.03871917      -0.08829208      -0.03191638       0.58144818
Mn       4.02397183       7.00105816       5.70633674       0.00090229       0.10120306      -0.06273307
Mn      -1.03578703       5.27409564       0.04466777      -0.17159462       0.11263166       0.05532336
Mn       0.97423497       1.72273038       5.71044635       0.00169063       0.16751888       0.02939784
Mn       8.08765651       0.02108580       0.02207103      -0.02025621      -0.24789337       0.10763030
Mn      -2.01872296       7.01908854       5.71841802      -0.02190684       0.01047487      -0.06048013
Mn       5.06747083       5.27400315       0.05610942       0.02563084      -0.26477232      -0.16047868
O       -0.00255922       3.51516576       5.94615089       0.04415478      -0.08299999       0.00985181
O        2.99469503       1.75337470       0.31825156       0.17829716      -0.16345960      -0.23641893
O       -0.02731125       3.52326378       0.28708761      -0.07669946      -0.08675757      -0.12559318
O        3.00652446       1.73622325       5.89039217       0.05036638       0.03710225       0.35055250
O        6.05712103      10.50733545       5.44523674      -0.01209168       0.04274707       0.00640054
O        6.04716067      10.51960188      11.10042845       0.03680932       0.25813575       0.07200871
O       10.21366795       3.36236897       3.86050575      -0.00770689      -0.06030916      -0.39766844
O       -3.90747597      10.53050261       9.53028297       0.09126920       0.07081315      -0.22967354
O        1.92021724       3.32986545       9.51794983       0.12541567       0.18938903      -0.01401014
O        1.06418921       1.86225350       3.83476752      -0.16236936       0.13149153       0.31546488
O       -2.21170500      10.52600365       3.86713196       0.09248350      -0.12396471      -0.26244677
O       11.01602586       1.89736033       9.51462913       0.10937441       0.07338568      -0.05222302
O       -2.09956610       3.68887390       7.55749200      -0.29107361      -0.21691281       0.16897832
O       -4.26171528      10.51129929       1.91508038       0.04770314       0.01269380      -0.22168062
O        2.09703917       3.62440828       1.90732192      -0.16300491       0.14065588      -0.15924160
O        0.88580332       1.62008334       7.59335623       0.28346528      -0.11981079      -0.38272732
O       -1.86420727      10.52788076       7.57598922      -0.14643413       0.02901142      -0.15670363
O       11.22088969       1.59021220       1.89369421      -0.19952467       0.06730224      -0.19595660
O       -3.06736187       8.76746836       5.92120100       0.09116650      -0.00901230       0.31385354
O       -0.02034180       7.03459030       0.26935652      -0.02582281      -0.11248872       0.03347805
O       -3.05902878       8.77451164       0.29930933      -0.03431574       0.11268066      -0.04133034
O       -0.00453758       7.03786577       5.93067002       0.10575907      -0.13142134       0.03767526
O        9.11744605       5.25953865       5.43290348      -0.10275498       0.05407262       0.19287134
O        9.07414917       5.30692360      11.11876788       0.23943901      -0.38107724      -0.14052274
O        7.15604500       8.64118489       3.87783842      -0.06453648      -0.19517823      -0.15771270
O       -0.87185043       5.27277092       9.52227526      -0.00850144       0.00182659       0.04753573
O       -1.13327401       8.64238689       9.53998039       0.18810351      -0.04584870      -0.57635106
O       -1.95176783       7.15910422       3.85904841       0.03616474       0.09247981      -0.03698765
O        0.83277135       5.25085853       3.82602847       0.09171362      -0.08702956       0.45323892
O        7.99475947       7.16037511       9.53243299       0.19843232       0.07174928       0.06789571
O        7.00455724       8.91104223       7.60062626      -0.06243486      -0.06980374      -0.19823852
O       -1.21538730       5.28195444       1.90736896       0.16875609      -0.11848189      -0.08457753
O       -0.94240547       8.90913952       1.90612483      -0.09616998       0.01523093      -0.02292431
O       -2.10699228       6.87239143       7.58329609      -0.26395008       0.10699607      -0.11746427
O        1.15869028       5.26965620       7.58451335       0.09815507      -0.11217823      -0.30490195
O        8.14881260       6.88465470       1.93177953       0.06919190      -0.01867985      -0.01383183
O        6.07874119       3.48888303       5.93203339      -0.10043361       0.24745636       0.00120944
O        9.07491309       1.77805767       0.27065675       0.20848158      -0.16052101       0.08989758
O        6.06330917       3.49142725       0.32509063      -0.19838574       0.13122149       0.00192249
O        9.11320337       1.74960932       5.95770146       0.02387168       0.03426501      -0.06479714
O       -0.01763017      10.52257123       5.45733468       0.03937859       0.06405510      -0.29974173
O        6.04454751       0.00531427      11.08618026       0.20951631      -0.00811640      -0.03074096
O        4.12888184       3.37645163       3.84142829      -0.09734596      -0.12497505      -0.05207174
O        8.27565919       0.01094961       9.48776942      -0.17419118      -0.00669005       0.25724352
O        7.97238366       3.36178003       9.54400941       0.22535258       0.04067994      -0.40076709
O        7.17320208       1.90909186       3.85180309       0.00002038      -0.22085693      -0.02857615
O        3.84561648      10.51151776       3.84879592       0.01130677      -0.02724442      -0.18459901
O        4.96557246       1.90246056       9.50434672      -0.03925214      -0.05329943       0.31971495
O        3.95103448       3.62680871       7.53891407      -0.01609364       0.18386065       0.27829034
O        1.83342935      10.52070328       1.89753393       0.10068418       0.13973614      -0.35250518
O        8.19575987       3.68277550       1.92271619      -0.15816152      -0.13837059      -0.07838258
O        6.99431385       1.60799388       7.55596880       0.02329919       0.02766121       0.19119396
O       10.31063988       0.01334361       7.55726893      -0.16874076      -0.17348386       0.12573453
O        5.13448112       1.59353170       1.93041593      -0.05449583       0.11023371      -0.27054851
O        3.04551085       8.76258787       5.98268910      -0.07724494      -0.11069475      -0.10848530
O        6.03812023       7.03560692       0.26539143       0.09847479      -0.14149874       0.16180839
O        3.00539734       8.76502496       0.23685005      -0.07538471       0.05916084       0.15958861
O        6.04932812       7.00341751       5.95624764       0.04002475       0.08356826      -0.01436174
O        3.03848921       5.25099610       5.41340289      -0.03019577       0.02776924       0.17216516
O        3.01863151       5.24666611      11.08398512       0.10369593      -0.02173432      -0.03790161
O        1.10987381       8.64362892       3.83249723      -0.09401116      -0.07473733       0.12531122
O        5.24317513       5.22233571       9.52881045      -0.22113452       0.21931919      -0.03212734
O        4.97077927       8.66642119       9.51884110      -0.07603211      -0.37451013      -0.03529969
O        4.07090475       7.15880748       3.82813882       0.15987262      -0.03028406       0.39192398
O        6.92829420       5.30221176       3.87838261      -0.13810984      -0.10911616      -0.03922850
O        1.92891589       7.12008790       9.49063150       0.00882275       0.22180881      -0.00929062
O        0.93218251       8.92036795       7.55879292      -0.06280765       0.11929573       0.12507582
O        4.88493634       5.26693955       1.90713897       0.05396736       0.11461832       0.13871534
O        5.13925923       8.91978028       1.90541447      -0.20556550      -0.09125826       0.00283552
O        3.98700565       6.84782591       7.57997460      -0.32180348       0.06998187      -0.16290783
O        7.25099423       5.26249241       7.57316205       0.03733325       0.03084935       0.24150962
O        2.09095259       6.81583696       1.85901494      -0.03802602       0.27033634       0.28669448
120
Lattice="12.16330994 0.0 0.0 -6.08165497 10.53373541 0.0 0.0 0.0 11.33498418" Properties=species:S:1:pos:R:3:forces:R:3 energy=-1061.57411658 stress="-0.00046760642383229567 -0.0009123720887089854 0.00035285673418309813 -0.0009123720887089854 0.0003570242147924869 -0.00012063803546421092 0.00035285673418309813 -0.00012063803546421092 -0.00297944088562249" free_energy=-1061.57411658 pbc="T T T"
Y       -0.05278895       3.48599721       8.32657623       0.46480188      -0.06952631       0.04191848
Y        3.00049948       1.74167046       2.65837718       0.06746197       0.24611769      -0.14521105
Y       -0.04142592       3.51073221       2.66684362       0.38708837       0.03269959       0.11670275
Y        3.03551936       1.72943300       8.36003053      -0.49652430       0.32265187      -0.12458032
Y       -0.00171004       0.01493705       3.16934421      -0.15742848      -0.46432818       0.15266331
Y       12.15048416       0.00837000       8.84438188      -0.18668513      -0.50594781      -0.03529192
Y       -3.07219356       8.78858081       8.32721428      -0.04456801      -0.36102000       0.19123637
Y       -0.04059663       7.03476854       2.70803268       0.25931383      -0.33753441      -0.20614082
Y       -3.07209224       8.76861391       2.64477282      -0.18197891      -0.00959322       0.19462347
Y       -0.06228679       7.01221317       8.33035996       0.29910629       0.04721388       0.13250408
Y        9.09400267       5.26085442       3.14784084      -0.06525896      -0.08389538       0.23488180
Y        9.09841066       5.23911974       8.85493804      -0.23922967       0.02325696      -0.24772247
Y        6.02911732       3.50106361       8.29898529       0.27218439       0.27249961       0.02573695
Y        9.07964875       1.74490758       2.64054974       0.19720678       0.12831488       0.27865112
Y        6.02511887       3.52567822       2.64579909      -0.01380448      -0.18793366       0.30285538
Y        9.08096129       1.70681549       8.32703394       0.18830185       0.32165871      -0.03100978
Y        6.04963791       0.01060610       3.12795542      -0.06599251      -0.15822509       0.41670702
Y       -0.04522927      10.53363660       8.83237904       0.16263056      -0.21898736      -0.16993177
Y        3.02058889       8.76146445       8.33578897      -0.01959424       0.13008130      -0.15929368
Y        6.05789115       7.02245060       2.67969409       0.10143669      -0.02940995      -0.05379510
Y        3.01708598       8.79491138       2.67578624       0.05126898      -0.45386108      -0.17892921
Y        6.05453863       6.99817318       8.29265516       0.16151940       0.08203642       0.22926910
Y        2.99869427       5.26875893       3.14212415      -0.07142769      -0.19107703       0.09853011
Y        3.01597188       5.29438014       8.81855206      -0.37484121      -0.49636844       0.11541146
Mn      11.12170806       1.76123508       0.06290588       0.04683527      -0.23253049       0.00257165
Mn       1.99765465       3.53285948       0.03342245       0.03064880      -0.18181226      -0.07669758
Mn      -2.07210365      10.50918464       5.69280368       0.22960715       0.04335759      -0.01792842
Mn      10.12236054       3.48688826       5.70920177      -0.10117627      -0.03696666       0.00453405
Mn       8.09081051       6.98173950       0.04281677      -0.02222125       0.29769548      -0.20835969
Mn      -1.04375807       8.75714488       0.06178802      -0.22881574      -0.04429553      -0.18935891
Mn       0.95613918       5.27842700       5.73605004       0.19020504      -0.25251943      -0.78236601
Mn       7.07738257       8.72487373       5.73973867      -0.15714213       0.30950977      -1.00799062
Mn       5.04746900       1.76068154       0.02890897      -0.30329914      -0.08125520       0.03971728
Mn       8.02038282       3.49075730       0.05175576       0.38546788       0.13456789       0.11944462