120
Lattice="12.16330994 0.0 0.0 -6.08165497 10.53373541 0.0 0.0 0.0 11.33498418" Properties=species:S:1:pos:R:3:forces:R:3 energy=-1061.60142634 stress="0.0004363841295168149 0.000833776259531848 0.0004180625165192774 0.000833776259531848 0.0010967289418582435 0.0008784058085289469 0.0004180625165192774 0.0008784058085289469 -0.002530456946735145" free_energy=-1061.60142634 pbc="T T T"
Y       -0.00897324       3.48888145       8.35978671       0.12890756       0.23298701       0.05660604
Y        3.05270532       1.75711681       2.70133167      -0.07472051       0.28269984       0.00211126
Y       -0.00691922       3.50121646       2.73080387       0.11191819       0.03550794      -0.13833973
Y        3.04390286       1.72867699       8.37019144      -0.21661038       0.13203888      -0.28292219
Y       -0.00450304       0.01176797       3.21633214       0.03171970       0.03979081      -0.14487164
Y        6.05919463      10.51970332       8.87698005       0.18784885      -0.03976719      -0.20583347
Y       -3.06170933       8.75671847       8.39504702      -0.04147908       0.11550112      -0.10197741
Y        0.01338438       7.01678366       2.71298868      -0.31478222      -0.07188915      -0.13073301
Y       -3.05796553       8.79111270       2.70800094      -0.00216871      -0.18273716      -0.04224572
Y       -0.01537296       7.02216977       8.37176462       0.01987433      -0.28435488      -0.10745808
Y        9.10838554       5.27435551       3.18399536       0.06161124      -0.11733142       0.04317146
Y        9.11905514       5.26484491       8.88516708      -0.06960531      -0.05263173       0.03851367
Y        6.10042770       3.47314785       8.34755287      -0.01605375       0.42990155      -0.12840968
Y        9.10374482       1.75313074       2.68183765       0.08722080      -0.08421189       0.07954611
Y        6.06439833       3.51795193       2.68257646       0.12553329       0.01917214       0.13891711
Y        9.14542039       1.73982358       8.36244375      -0.36290356       0.05014239      -0.15931659
Y       -0.01779444      10.53239805       3.17741007      -0.05540208      -0.08234638       0.07539866
Y        6.06978474       0.00128459       8.86884720       0.13271249      -0.28128228      -0.19701518
Y        3.03023355       8.75938382       8.40371329      -0.14929722      -0.05525814      -0.27903006
Y        6.04598886       7.05631592       2.68838065       0.18359511      -0.36031688       0.18021176
Y        3.02048204       8.79504526       2.68707146       0.00272072      -0.23485307       0.02855213
Y        6.06897989       7.01974227       8.35604515       0.13746987      -0.34192008       0.04147311
Y        3.03137483       5.27960015       3.21292212       0.06749665      -0.26098451       0.05093005
Y        3.04129869       5.24929175       8.87958596       0.00765621      -0.08903930      -0.19763842
Mn      11.12724242       1.76092739       0.06196813       0.24387098      -0.14860727       0.29069994
Mn       1.97845918       3.48996790       0.07847992       0.47959271       0.16992346       0.20486603
Mn      -2.04355132      10.50607793       5.73697962      -0.14454248       0.29520817       0.23494219
Mn      10.07413338       3.50026442       5.75072715       0.22750110       0.13796667      -0.06099962
Mn      -4.04063113       7.00179794       0.10355494      -0.18206840       0.02034395      -0.52662678
Mn      -1.02254593       8.75847245       0.09921070      -0.07777192      -0.04468261      -0.03389812
Mn       0.99481316       5.23725274       5.76395213       0.22067406       0.01247987       0.00982418
Mn       7.06806225       8.78691648       5.73735107       0.03572742      -0.10525643       0.38222967
Mn       5.06070195       1.72036640       0.05063984       0.02254342       0.29516312       0.47099594
Mn       8.06781499       3.44883156       0.08839531       0.46892178       0.45598641      -0.26672567
Mn       4.04338569      10.52144897       5.74011647      -0.02386575      -0.08955679       0.03501208
Mn       4.08148848       3.50842206       5.75592469      -0.32610949      -0.19750973      -0.30188609
Mn       2.01883602       6.98082970       0.08287064      -0.17511576       0.00241459       0.05673064
Mn       5.04624099       8.76889010       0.08197132       0.01498642       0.00270237      -0.27328175
Mn       7.05883400       5.27975110       5.73158134       0.15253310      -0.23288571       0.16557652
Mn       0.95614052       8.75385920       5.74891593       0.38413143       0.15694491       0.28790482
Mn       7.09241295       1.73016741       5.73003173      -0.06612377       0.11323043      -0.26655192
Mn      -4.07288099      10.53209942       0.10274698      -0.05606505       0.05770640      -0.22668162
Mn       4.02942945       7.04739659       5.75626531      -0.07666439      -0.26171356       0.14636028
Mn      -1.01191283       5.28202638       0.08806115      -0.02338382      -0.08134757       0.13934707
Mn       0.98761485       1.75915667       5.76133692       0.49999337      -0.11578623       0.08513549
Mn       2.03006142      10.50371216       0.05554154      -0.09388463      -0.00209267       0.46925345
Mn      -2.05314452       7.02805128       5.73852345       0.07125220      -0.11018957       0.08937123
Mn       5.10005895       5.28342568       0.07510039      -0.21442475      -0.19089265       0.20735530
O       -0.00841476       3.47544241       5.96965987      -0.34980733       0.20734606       0.09217461
O        3.05672986       1.73700465       0.33366963      -0.15002406       0.06471974      -0.19682485
O       -0.01362491       3.50327928       0.32200423       0.01723634      -0.10628152      -0.02621320
O        3.02722307       1.71033902       5.99467323       0.04511100       0.19823020       0.10954519
O        6.07887991      10.52715098       5.48393211      -0.18126522      -0.02539447      -0.12211751
O        6.03217791      10.50109684      11.13123387       0.27077860       0.28040280       0.08202998
O       10.19015202       3.35900977       3.89116303      -0.01200883      -0.01218203      -0.00625461
O        2.16832790       0.02165494       9.57795202       0.06554941      -0.25454010      -0.07461361
O        1.94859144       3.37286711       9.56143548      -0.17454791      -0.28123064      -0.12661550
O        1.13047238       1.90438918       3.91360947      -0.36690381      -0.03513971      -0.27695730
O        3.86880850       0.04350359       3.88382499       0.10227244      -0.48157487      -0.08322994
O       11.05919028       1.88064245       9.52270440       0.02313185       0.05820371       0.43494788
O       10.03646574       3.66417366       7.61416953       0.04987591      -0.09521970      -0.13415173
O        1.84735597       0.01850988       1.95588224      -0.04699382      -0.16046686      -0.05418339
O        2.12426814       3.66122569       1.93795551      -0.36834471      -0.00408073       0.05178530
O        0.92353063       1.59665927       7.61981333      -0.07792965       0.04049181       0.05172287
O       -1.86112314      10.48216856       7.60386739      -0.00796167       0.10722410       0.10431927
O       11.23682600       1.58212050       1.93025361      -0.07356088       0.34686693      -0.08023699
O       -3.09714823       8.77020144       5.98927563       0.32501112      -0.15695491      -0.10520705
O       -0.00509387       7.03053734       0.36018646       0.05818470      -0.02088783      -0.13325177
O       -3.05319909       8.77588450       0.32208890      -0.07042275       0.06481314       0.06769524
O        0.01084353       6.98776964       6.01094007      -0.27801839       0.17862386      -0.08375073
O        9.08431514       5.27935513       5.46478732       0.25502504      -0.14171232      -0.14673631
O       -3.02881421       5.26566170      11.17017215      -0.11152971      -0.13585597      -0.20172845
O       -4.99271646       8.65210236       3.87833466      -0.13181806      -0.07381676       0.05209238
O       -0.81883360       5.28810846       9.58144161      -0.30335879      -0.21036745      -0.33345527
O       -1.08914565       8.61548858       9.57729369      -0.16907781       0.11811893      -0.11497164
O       -1.92805625       7.16526951       3.87396264      -0.30148530       0.02720778       0.28314645
O        0.82366262       5.29077655       3.90215910       0.16550433      -0.32856462       0.03770045
O        8.01854148       7.15189240       9.57124965       0.00975708      -0.02333337      -0.01325049
O        6.97800796       8.92042937       7.61618058       0.19871903      -0.05571948      -0.19065015
O       -1.16952719       5.24961239       1.93838363      -0.11910393       0.03022921       0.31963529
O       -0.97776829       8.89329330       1.95634153       0.29673175       0.27991909       0.05439673
O       -2.14200723       6.86359060       7.59922072       0.08969607       0.13779988       0.06168163
O        1.17405729       5.21955080       7.62515131      -0.03217977       0.20886460      -0.15369133
O        8.16400542       6.85815182       1.93812349       0.12295751       0.24997709       0.44083301
O        6.07899844       3.46992020       5.97633470       0.05936088       0.18368092       0.06230509
O        9.12657510       1.73036629       0.31887464      -0.11034557      -0.03379549      -0.07044003
O        6.10796518       3.50680692       0.31912004      -0.40835448      -0.01011141      -0.03353848
O        9.08796663       1.72704321       5.99298035       0.40712520       0.17027469      -0.14974558
O        6.04548147       0.00663931       5.44636638       0.20108105      -0.35791636       0.06508986
O       -0.00115886      10.51990683      11.15663036       0.03287219       0.08265853      -0.25143253
O        4.15024864       3.36642246       3.88087789      -0.07043584       0.07505795       0.15891181
O        2.18665327      10.52485284       9.54666735       0.00561542       0.05821591      -0.05019060
O        8.04515060       3.35235076       9.55035655      -0.14814211      -0.09582024       0.13716488
O        7.15073456       1.88330875       3.85399448       0.17226586      -0.02663062       0.25655361
O        9.98516527       0.01939145       3.87979812      -0.26268091      -0.15859831       0.00072492
O        4.99391607       1.89270095       9.51773367       0.00208845      -0.21427459       0.35782387
O        3.95997117       3.63227688       7.60875662       0.19093793       0.08419484       0.12353939
O        1.82385165      10.51692199       1.92632729       0.27434322       0.01594291      -0.17013292
O        8.19675404       3.65022636       1.93647459      -0.10864232      -0.08917264       0.03506066
O        7.04543466       1.60020945       7.57855693      -0.30949748      -0.27628006       0.41940790
O        4.21634510      10.51325909       7.58312720       0.01707412      -0.01002469       0.43198345
O        5.16346866       1.60900607       1.92423383      -0.11445385      -0.08989677      -0.24290704
O        3.02629890       8.75417289       6.03302379      -0.17556839       0.22644244      -0.25384535
O        6.07774769       7.04235293       0.31793191       0.01327910      -0.10027126       0.04323167
O        3.02775971       8.73028996       0.28084611      -0.09936409       0.31279923       0.11716975
O        6.06173493       7.00625909       5.97513546      -0.06412990       0.16255770       0.01570554
O        3.04519247       5.23892350       5.48734439      -0.08618368       0.11083556      -0.10394333
O        3.05166135       5.25963292      11.12729043       0.08105064      -0.07434999       0.11046443
O        1.10300860       8.60740425       3.89227771      -0.17239288       0.28574000       0.09291921
O        5.27459795       5.21476511       9.55599219      -0.19742173       0.30309477       0.01298174
O        4.97636222       8.61456150       9.54753561      -0.02863962       0.02679322       0.18364732
O        4.09808434       7.18628210       3.89416827       0.10683962       0.05802057       0.02499121
O        6.90841564       5.25693998       3.88055722       0.01664710       0.19206991      -0.16422118
O        1.87760187       7.12965221       9.56120424       0.43529083       0.04946152       0.03982612
O        0.91021989       8.91588827       7.62669242      -0.03819201       0.08329931      -0.30066826
O        4.89871159       5.29018992       1.95874625      -0.02125308      -0.03059443      -0.43582509
O        5.11419935       8.93958907       1.93537816       0.15179500       0.03049515       0.12735326
O        3.95564347       6.86583597       7.62739349       0.06451786       0.01213609      -0.10641098
O        7.27035816       5.25483133       7.58851891      -0.11154151       0.06478507       0.16880103
O        2.10194329       6.86569892       1.95174962       0.21262713       0.07523694      -0.17494447
120
Lattice="12.16330994 0.0 0.0 -6.08165497 10.53373541 0.0 0.0 0.0 11.33498418" Properties=species:S:1:pos:R:3:forces:R:3 energy=-1061.66543639 stress="0.001406319684576938 0.00024049141960866144 -5.0452958151166655e-05 0.00024049141960866144 -0.0002828858467387268 -0.0005557434857309335 -5.0452958151166655e-05 -0.0005557434857309335 -0.002996691630416282" free_energy=-1061.66543639 pbc="T T T"
Y       -0.00929003       3.49285257       8.34351727       0.01890605       0.10513329       0.14943918
Y        3.01549095       1.73713642       2.65745213       0.05232165       0.33855523       0.43463012
Y       -0.03181107       3.50122383       2.70908967       0.07424681       0.10190849       0.01339186
Y        3.02219384       1.75605533       8.36870179      -0.13873552      -0.32356278       0.08929240
Y       12.11825072       0.00368596       3.17424387       0.27080186      -0.12145436       0.38093275
Y        6.04967276      10.52293665       8.85530076       0.24169816       0.00792827       0.06022276
Y       -3.06018959       8.74275696       8.36597868      -0.05235622       0.43290147      -0.02838164
Y       -0.03325601       7.03086821       2.70780950      -0.02598538      -0.25892677      -0.02813246
Y       -3.07806972       8.78712178       2.68779010       0.23251209      -0.07726237       0.17438425
Y       -0.01762360       7.02220274       8.33848159      -0.02073047      -0.04247942       0.07469888
Y        9.07242843       5.26250474       3.17420476       0.25060033       0.02627603       0.31256002
Y        9.11798428       5.24805561       8.84512138      -0.05188514      -0.07721426       0.05606587
Y        6.02883020       3.48750069       8.37094533       0.15660753       0.19618191      -0.20633402
Y        9.09308106       1.76781256       2.65381949       0.13506596      -0.25704785       0.26162076
Y        6.06093124       3.51240286       2.69073470      -0.33793629      -0.06198186      -0.01644961
Y        9.09449310       1.73630152       8.33291328       0.03258360       0.19560022       0.16390766
Y        6.06891494       0.00547933       3.20708461      -0.21426570      -0.26606453      -0.17164145
Y       -0.00998450      10.52319978       8.86075482      -0.28906611      -0.09676573       0.00008143
Y        3.04256252       8.76727212       8.36993889      -0.27045743      -0.02088953      -0.14978930
Y        6.06324112       7.02735100       2.66877238      -0.23551106      -0.07032205       0.19221208
Y        3.01906915       8.78111313       2.69447513      -0.10356229      -0.04231797       0.08166554
Y        6.05956810       6.98541756       8.34258418      -0.01767865       0.37396489       0.08367266
Y        3.00338949       5.26868909       3.17835031       0.06215853       0.00335390       0.19834029
Y        3.01564913       5.27860766       8.86890014      -0.30721914      -0.03843495      -0.11152351
Mn      11.11367431       1.72889483       0.05609287       0.06213357       0.15436082       0.34178974
Mn       1.96858714       3.52443671       0.09187730       0.20666541       0.03834944      -0.28034789
Mn      -2.06536232      10.50609541       5.73354093       0.17440400       0.19628808       0.09805276
Mn      10.11704432       3.51780204       5.74691360       0.14093967       0.00574490      -0.52458432
Mn       8.09201359       7.02338778       0.07483731       0.11050054      -0.15371212      -0.00485429
Mn      -1.03633408       8.77608643       0.09056822       0.08603622      -0.12265310      -0.02484960
Mn       0.96596385       5.26587206       5.75650493       0.27366387      -0.01952957      -0.39215884
Mn       7.06265097       8.76898669       5.73914869       0.06220534      -0.06937268      -0.10884695
Mn       5.05102944       1.77052573       0.08602845       0.01618412      -0.10209887      -0.49447192
Mn       8.08985454       3.49979356       0.04724263      -0.01758408       0.06081763       0.32711406
Mn      10.12865937       0.00629148       5.73493933      -0.18999789      -0.13073208      -0.50874173
Mn       4.00493783       3.49605082       5.73732228      -0.09450414       0.05632924      -0.53967077
Mn       2.00120828       7.04814564       0.08822959      -0.17303731      -0.11908269      -0.44043706
Mn       5.05403408       8.76548949       0.08244977       0.04225406       0.10569199      -0.13627171
Mn       7.04350507       5.23579276       5.73352993      -0.01188311       0.06527076       0.16206289
Mn       0.99965689       8.79589818       5.73580985       0.04324950      -0.23249952      -0.14164041
Mn       7.09562972       1.73752322       5.73238431      -0.35070391       0.08823366       0.16785552
Mn       2.01192209       0.00150222       0.09478971      -0.19560390       0.08590496      -0.43918886
Mn       4.02729740       7.03233682       5.71267685      -0.04484901      -0.09473814       0.39708454
Mn      -1.02512893       5.23703838       0.07340275      -0.08984131       0.36336876      -0.08722595
Mn       1.01552484       1.74813491       5.74867744      -0.04523848      -0.07809248      -0.63423396
Mn       2.00431856      10.50912913       0.07817342      -0.12782177       0.05187713      -0.21526115
Mn      -2.06712162       7.03832399       5.72256368       0.06734665      -0.28949494      -0.00452722
Mn       5.01000801       5.27093415       0.07431261       0.09970338      -0.08836506      -0.02341460
O        0.01415225       3.49178160       5.97542700      -0.26547731       0.00365231       0.00505344
O        3.00038436       1.78001168       0.27137256       0.13896470      -0.14059594       0.27353843
O       -0.04738102       3.51140100       0.33104637       0.09216440      -0.10008102      -0.06837501
O        3.02773429       1.70455642       5.95372186      -0.05590654       0.29383114       0.17894324
O        6.06595925      10.49687102       5.45649181      -0.13049204       0.30562914      -0.01837278
O       12.11661889       0.02751791      11.14090635       0.17679891      -0.34960507      -0.07657881
O       10.20770708       3.37790350       3.88715135      -0.24289413      -0.10146902      -0.16138352
O        2.14254010       0.00083964       9.57710677       0.16308446      -0.13677390      -0.32101922
O        1.92170372       3.40488524       9.55982296      -0.08434841      -0.25729212      -0.00564714
O        1.07651381       1.89384544       3.87887783      -0.02055502      -0.08850226       0.06176056
O       -2.22416346      10.51498125       3.87234163       0.05818181       0.09990757      -0.00532388
O       11.04236776       1.88178694       9.54421582      -0.07483364       0.04843625      -0.22849992
O       -2.10212860       3.64640957       7.57631680      -0.22290120      -0.06314566       0.52371751
O        1.82787710       0.01008068       1.94410224      -0.01369507      -0.14030850      -0.05371776
O        2.09051215       3.65066878       1.94825107      -0.17034133      -0.01624997      -0.17267590
O        0.91525447       1.59589325       7.58554098       0.05090377      -0.08423608       0.45631215
O       -1.87219899      10.53188516       7.59876381      -0.13731117      -0.12559808       0.12237033
O       11.22682302       1.58429572       1.92496992      -0.32345967       0.24370563      -0.10456634
O       -3.04674074       8.77860284       5.97862267      -0.16910824      -0.22206373       0.00429238
O       -0.02842997       7.02608695       0.34206908      -0.04744765      -0.06021059      -0.16825012
O       -3.05288966       8.79923084       0.31527578      -0.17937978      -0.12335755       0.05937784
O       -0.00330185       7.02561872       5.95382240      -0.25157003       0.04019441       0.14379947
O        9.07725331       5.25355707       5.48855690       0.02559957       0.06101243      -0.36769361
O        9.09844252       5.24896267      11.12772150       0.07040909       0.08615759      -0.04635799
O        7.14190789       8.60853694       3.88635405       0.04686578       0.11901653      -0.19749415
O       -0.84741087       5.26142471       9.51802895      -0.21913711      -0.06728222       0.54107963
O       -1.14523906       8.60395561       9.54490352       0.27749387       0.18180680       0.28126507
O       -1.99295475       7.15034942       3.86101571      -0.04351001       0.06852626       0.19004704
O        0.82859952       5.24544514       3.88403117      -0.09712323       0.12957628       0.03866547
O        8.02443856       7.12120036       9.55334196      -0.16448997       0.22404469      -0.19739626
O        6.99835195       8.92866190       7.58880308      -0.10719632      -0.20606615       0.32459196
O       -1.22446186       5.26839478       1.94414804       0.08966891      -0.12854616      -0.24859681
O       -0.93780518       8.92971001       1.97018291      -0.27528396      -0.02979712      -0.53943788
O       -2.14487424       6.84749863       7.57777040       0.12043757       0.21232669       0.06914723
O        1.13967459       5.25346047       7.61424116       0.12283994       0.15512919      -0.15944452
O        8.17073982       6.89500693       1.94119335      -0.03851658      -0.16153219      -0.20931119
O        6.02611006       3.48484166       5.97652014       0.10640181       0.07566041       0.06998933
O        9.08078937       1.73884068       0.30806073       0.08114383       0.06134226       0.00788297
O        6.06254088       3.51193106       0.30950333      -0.08315788       0.05877499      -0.05822300
O        9.07956762       1.77404158       5.96715053       0.24692628      -0.17362101       0.05338556
O       -0.02652708      10.53195942       5.45579607       0.07743994      -0.02375685       0.12182378
O       -0.03295552      10.52273103      11.14994589       0.03739587       0.08224669      -0.19232854
O        4.09962269       3.36352495       3.87206766       0.04051610      -0.00029136      -0.02369252
O        2.14548910      10.51112569       9.54050124       0.27665178       0.09320928       0.13817054
O        8.03011949       3.34225681       9.53926595      -0.20213045       0.08775758      -0.22946188
O        7.15486030       1.86069356       3.87067822       0.18427617       0.38417957      -0.02880660
O        3.85864727      10.52504034       3.86556002       0.04942165       0.24780270       0.20645625
O        4.98305922       1.89889204       9.53955238      -0.12634614      -0.08795719       0.26311698
O        3.87398563       3.64247469       7.57422312       0.44480985       0.11802154       0.47370182
O        1.82838115      10.51610942       1.92782963       0.09487128       0.16090422       0.05467156
O        8.16026940       3.65792452       1.91934006       0.05547286      -0.02642631      -0.02278980
O        6.98997130       1.61688625       7.60729849       0.00335135      -0.14180422      -0.18507201
O       10.27221398       0.00069143       7.57637699       0.19095006      -0.03090433       0.40501083
O        5.13900179       1.60890010       1.92847051      -0.12270326      -0.01599633       0.11641072
O        3.01661417       8.78632343       5.96675460       0.09633050       0.04824534       0.00319760
O        6.07726176       7.01957773       0.30796653      -0.09174076       0.02585128       0.00934432
O        3.03962435       8.77170998       0.31763357      -0.07054496       0.11187503      -0.09776651
O        6.06337279       7.01173821       5.98830921       0.01584054      -0.04052791      -0.04383415
O        3.01758918       5.28750129       5.45051000       0.01595596      -0.16548785       0.02308464
O        3.00251835       5.28610473      11.14559960       0.02295851      -0.07204774       0.05224085
O        1.06725175       8.61035159       3.86680948       0.08890665       0.34580056       0.36748476
O        5.16720237       5.25585089       9.55850618       0.24706195       0.00085571      -0.34318635
O        4.98520349       8.62467831       9.55879329      -0.04101343      -0.01797507      -0.15390757
O        4.10854466       7.17203480       3.87021881       0.10232317      -0.02759011      -0.21657634
O        6.85611152       5.25199871       3.86265554       0.32844795       0.06899513       0.26094740
O        1.92696642       7.16408215       9.54769634      -0.06433980       0.10358702       0.07339174
O        0.92951431       8.92129903       7.59906260      -0.09656696       0.06131362      -0.00055584
O        4.85849142       5.27288510       1.91422753       0.06730352      -0.05073361       0.27619202
O        5.12074911       8.92915214       1.93523080       0.15983021      -0.12369907      -0.06436916
O        3.93820949       6.88371224       7.58357539       0.14552934      -0.09465118       0.06144766
O        7.22056686       5.24739926       7.61241442       0.05054193      -0.17795875      -0.20880517
O        2.07149579       6.90984781       1.92450644       0.12165742      -0.27490231       0.36763879
120
Lattice="12.16330994 0.0 0.0 -6.08165497 10.53373541 0.0 0.0 0.0 11.33498418" Properties=species:S:1:pos:R:3:forces:R:3 energy=-1061.59601206 stress="-0.0011811561006645293 -0.00015919689919869292 0.00021793350712211317 -0.00015919689919869292 0.00019409667196661667 3.870286783303436e-05 0.00021793350712211317 3.870286783303436e-05 -0.0014046053292653313" free_energy=-1061.59601206 pbc="T T T"
Y       -0.02380560       3.49267750       8.27933802       0.19952245      -0.21038935       0.09915819
Y        3.01298786       1.73955666       2.63664189       0.17713177      -0.04172231      -0.44564325
Y       -0.03427907       3.47262232       2.63810127      -0.12701186       0.08920557      -0.49832777
Y        3.01545823       1.72529967       8.29008858       0.08396560       0.05498198       0.00490960
Y        6.06174600      10.51382381       3.12367544      -0.01990955      -0.03440952      -0.10321366
Y        6.04579303      10.51351085       8.79359900       0.29046817      -0.06894936      -0.20315106
Y       -3.07401562       8.75544990       8.28915015      -0.05199059       0.30300352       0.21156051
Y       -0.05085608       6.99776047       2.64423860       0.09282540      -0.09759077      -0.29112727
Y       -3.07669861       8.76061711       2.61652932       0.08780237      -0.09102109      -0.18702073
Y       -0.04076564       6.98482462       8.27148141       0.04932103       0.18156898       0.15527590
Y        9.07893495       5.24450300       3.12771240      -0.03541857       0.01776775      -0.35631998
Y        9.06926858       5.23301839       8.74215393       0.12543221       0.13627915       0.48413192
Y        6.02931874       3.47625730       8.29255167       0.25206662      -0.09552459      -0.20295527
Y        9.08710413       1.74394754       2.62752732       0.13192015       0.10993593       0.03034637
Y        6.04679906       3.49973731       2.60945357      -0.08218326       0.22400666      -0.07567386
Y        9.10038275       1.72921326       8.29164918      -0.01341932      -0.00813553      -0.07992709
Y       -0.02017090      10.52115771       3.10565395      -0.07864519       0.06642353       0.08607115
Y       -0.00996692      10.49231329       8.79418434      -0.04264106       0.22562896      -0.02104556
Y        3.03402777       8.75274504       8.26502432      -0.38313065      -0.08060333       0.14070641
Y        6.03211545       7.01676607       2.61058424       0.06552741      -0.28052335      -0.07928043
Y        3.01240305       8.76530136       2.62711234      -0.03752053      -0.40621432      -0.01882939
Y        6.05218601       6.99210090       8.26774608      -0.24794178      -0.16501848       0.06536443
Y        2.99408790       5.19984723       3.11032555       0.11781638       0.61888893      -0.26026917
Y        3.00275651       5.24591221       8.78935258       0.03136247      -0.06782869      -0.14737839
Mn      11.10971905       1.72096461       0.01254103       0.28218618      -0.03017565      -0.55320480
Mn       1.96683008       3.47533528       0.00169741       0.29906024      -0.01241596      -0.14471860
Mn       4.03351973       0.00415703       5.67100253       0.22311467      -0.05731530      -0.13357937
Mn      10.11813993       3.52868812       5.67239708      -0.06303115      -0.39008502      -0.24463947
Mn       8.06603099       7.00890358      11.32673038      -0.04444408      -0.18785369       0.05950703
Mn      -1.02221922       8.73084667      11.33434965      -0.17118483       0.16019826       0.39186573
Mn       0.96898559       5.22646683       5.63647402      -0.00802770       0.27355070       0.45194758
Mn       7.07140485       8.74118532       5.66196096      -0.17718842       0.00596974      -0.20473638
Mn       5.03739309       1.73654295      11.32289757      -0.17089977       0.19942866       0.01332557
Mn       8.07481899       3.47181870      11.32475254      -0.14907608       0.33416860       0.08619126